D 0.05739 _9_ (56,-1->1,-1->4,-1->56,12.057393)
(9),Route table updated..
VWST 0.057393487860 frm 9 to 56 wst 6.000000000000 nxthp 56 [of 1]
D 12.06179 _9_ (13,-1->1,-1->0,-1->13,604812.061785)
(9),Route table updated..
VWST 12.061785090615 frm 9 to 13 wst 6.000000000000 nxthp 13 [of 1]
D 12.09262 _9_ (13,1->2,0->4,13->56,22.592618)
(9),Route table updated..
VWST 12.092617980971 frm 9 to 13 wst 5.250000000000 nxthp 56 [of 2]
D 13.48412 _9_ (56,1->1,4->6,56->56,23.984125)
(9),Route table updated..
VWST 13.484124689733 frm 9 to 56 wst 5.250000000000 nxthp 56 [of 1]
D 26.72789 _9_ (13,2->2,4->6,56->56,35.915390)
(9),Route table updated..
VWST 26.727890229102 frm 9 to 13 wst 4.593750000000 nxthp 56 [of 2]
D 26.72789 _9_ (56,1->1,6->8,56->56,35.915390)
(9),Route table updated..
VWST 26.727890229102 frm 9 to 56 wst 4.593750000000 nxthp 56 [of 1]
D 39.00844 _9_ (13,2->2,6->8,56->56,47.047505)
(9),Route table updated..
VWST 39.008442996664 frm 9 to 13 wst 4.019531250000 nxthp 56 [of 2]
D 39.00844 _9_ (56,1->1,8->10,56->56,47.047505)
(9),Route table updated..
VWST 39.008442996664 frm 9 to 56 wst 4.019531250000 nxthp 56 [of 1]
D 40.50215 _9_ (13,2->1,8->10,56->13,47.536325)
(9),Route table updated..
VWST 40.502145155593 frm 9 to 13 wst 3.517089843750 nxthp 13 [of 1]
D 52.28649 _9_ (56,1->1,10->12,56->56,59.320671)
(9),Route table updated..
VWST 52.286491060137 frm 9 to 56 wst 3.517089843750 nxthp 56 [of 1]
D 55.12952 _9_ (13,1->1,10->12,13->13,61.284427)
(9),Route table updated..
VWST 55.129519442776 frm 9 to 13 wst 3.077453613281 nxthp 13 [of 1]
D 67.91078 _9_ (13,1->1,12->14,13->13,73.296328)
(9),Route table updated..
VWST 67.910784432059 frm 9 to 13 wst 2.692771911621 nxthp 13 [of 1]
D 76.27702 _9_ (4,-1->4,-1->10,-1->13,88.277018)
(9),Route table updated..
VWST 76.277018480609 frm 9 to 4 wst 6.000000000000 nxthp 13 [of 4]
D 77.27740 _9_ (48,-1->3,-1->12,-1->13,89.277404)
(9),Route table updated..
VWST 77.277404249841 frm 9 to 48 wst 6.000000000000 nxthp 13 [of 3]
D 94.93647 _9_ (13,1->1,14->18,13->13,99.648819)
(9),Route table updated..
VWST 94.936468302937 frm 9 to 13 wst 2.356175422668 nxthp 13 [of 1]
31 wst 3.077453613281 nxthp 31 [of 1]
D 66.20817 _11_ (26,1->1,12->14,26->26,73.242349)
(11),Route table updated..
VWST 66.208169090283 frm 11 to 26 wst 3.517089843750 nxthp 26 [of 1]
D 69.22318 _11_ (23,1->1,12->14,23->23,75.378084)
(11),Route table updated..
VWST 69.223176404701 frm 11 to 23 wst 3.077453613281 nxthp 23 [of 1]
D 76.35912 _11_ (31,1->1,14->16,31->31,81.744662)
(11),Route table updated..
VWST 76.359118230760 frm 11 to 31 wst 2.692771911621 nxthp 31 [of 1]
D 88.10176 _11_ (23,1->2,14->16,23->31,93.487303)
(11),Route table updated..
VWST 88.101759267105 frm 11 to 23 wst 2.692771911621 nxthp 31 [of 2]
D 88.10176 _11_ (26,1->2,14->16,26->31,94.256666)
(11),Route table updated..
VWST 88.101759267105 frm 11 to 26 wst 3.077453613281 nxthp 31 [of 2]
D 88.10176 _11_ (31,1->1,16->18,31->31,92.814110)
(11),Route table updated..
VWST 88.101759267105 frm 11 to 31 wst 2.356175422668 nxthp 31 [of 1]
.10176 _23_ (31,1->1,16->18,31->31,92.814109)
(23),Route table updated..
VWST 88.101758645051 frm 23 to 31 wst 2.356175422668 nxthp 31 [of 1]
 1]
00000000000 nxthp 65 [of 2]
D 96.39719 _90_ (5,2->2,10->18,65->65,105.584693)
(90),Route table updated..
VWST 96.397193450643 frm 90 to 5 wst 4.593750000000 nxthp 65 [of 2]
U 96.39719 _90_ (34,-1->250,-1->11,-1->65,96.397193)
(90),Route table updated..
VWST 96.397193450643 frm 90 to 34 wst 6.000000000000 nxthp 65 [of 250]
D 96.39719 _90_ (51,3->3,8->14,65->65,105.584693)
(90),Route table updated..
VWST 96.397193450643 frm 90 to 51 wst 4.593750000000 nxthp 65 [of 3]
D 96.39719 _90_ (65,2->1,16->18,44->65,101.782737)
(90),Route table updated..
VWST 96.397193450643 frm 90 to 65 wst 2.692771911621 nxthp 65 [of 1]
D 96.89717 _90_ (44,1->1,18->20,44->44,103.052072)
(90),Route table updated..
VWST 96.897165183375 frm 90 to 44 wst 3.077453613281 nxthp 44 [of 1]
>18,65->5,105.517478)
(44),Route table updated..
VWST 96.329978100902 frm 44 to 51 wst 4.593750000000 nxthp 5 [of 2]
U 96.32998 _44_ (91,309 frm 5 to 51 wst 2.692771911621 nxthp 51 [of 1]
D 86.46242 _5_ (30,-1->2,-1->16,-1->96,98.462420)
(5),Route table updated..
VWST 86.462420483987 frm 5 to 30 wst 6.000000000000 nxthp 96 [of 2]
U 86.46242 _5_ (34,3->250,10->11,96->96,86.462420)
(5),Route table updated..
VWST 86.462420483987 frm 5 to 34 wst 5.250000000000 nxthp 96 [of 250]
D 86.46242 _5_ (96,1->1,16->18,96->96,96.962420)
(5),Route table updated..
VWST 86.462420483987 frm 5 to 96 wst 5.250000000000 nxthp 96 [of 1]
D 90.53647 _5_ (44,1->1,16->18,44->44,99.723966)
(5),Route table updated..
VWST 90.536466020497 frm 5 to 44 wst 4.593750000000 nxthp 44 [of 1]
D 90.53647 _5_ (90,2->2,14->16,44->44,98.575529)
(5),Route table updated..
VWST 90.536466020497 frm 5 to 90 wst 4.019531250000 nxthp 44 [of 2]
D 92.41161 _5_ (30,2->2,16->18,96->35,102.911614)
(5),Route table updated..
VWST 92.411613624163 frm 5 to 30 wst 5.250000000000 nxthp 35 [of 2]
U 94.41427 _5_ (91,4->250,10->11,96->35,94.414267)
(5),Route table updated..
VWST 94.414267411598 frm 5 to 91 wst 5.250000000000 nxthp 35 [of 250]
D 96.89717 _5_ (44,1->1,18->20,44->44,104.936228)
(5),Route table updated..
VWST 96.897165469305 frm 5 to 44 wst 4.019531250000 nxthp 44 [of 1]
D 97.04140 _5_ (51,1->1,18->20,51->51,101.753746)
(5),Route table updated..
VWST 97.041395305774 frm 5 to 51 wst 2.356175422668 nxthp 51 [of 1]
D 98.69590 _5_ (30,2->2,18->20,35->35,107.883397)
(5),Route table updated..
VWST 98.695896654957 frm 5 to 30 wst 4.593750000000 nxthp 35 [of 2]
D 98.69590 _5_ (35,2->1,14->20,96->35,109.195897)
(5),Route table updated..
VWST 98.695896654957 frm 5 to 35 wst 5.250000000000 nxthp 35 [of 1]
12 to 93 wst 6.000000000000 nxthp 91 [of 250]
D 98.88218 _12_ (20,-1->4,-1->10,-1->0,110.882176)
(12),Route table updated..
VWST 98.882176466516 frm 12 to 20 wst 6.000000000000 nxthp 0 [of 4]
D 98.88218 _12_ (59,-1->4,-1->10,-1->0,110.882176)
(12),Route table updated..
VWST 98.882176466516 frm 12 to 59 wst 6.000000000000 nxthp 0 [of 4]
D 98.88218 _12_ (61,-1->3,-1->14,-1->0,110.882176)
(12),Route table updated..
VWST 98.882176466516 frm 12 to 61 wst 6.000000000000 nxthp 0 [of 3]
D 98.88218 _12_ (94,-1->2,-1->18,-1->0,110.882176)
(12),Route table updated..
VWST 98.882176466516 frm 12 to 94 wst 6.000000000000 nxthp 0 [of 2]
64319 frm 34 to 54 wst 6.000000000000 nxthp 0 [of 250]
U 97.87968 _34_ (67,250->3,9->20,12->0,97.879681)
(34),Route table updated..
VWST 97.879681164319 frm 34 to 67 wst 4.593750000000 nxthp 0 [of 3]
D 98.88218 _34_ (20,-1->4,-1->10,-1->0,110.882177)
(34),Route table updated..
VWST 98.882176731438 frm 34 to 20 wst 6.000000000000 nxthp 0 [of 4]
D 98.88218 _34_ (59,-1->4,-1->10,-1->0,110.882177)
(34),Route table updated..
VWST 98.882176731438 frm 34 to 59 wst 6.000000000000 nxthp 0 [of 4]
D 98.88218 _34_ (61,-1->3,-1->14,-1->0,110.882177)
(34),Route table updated..
VWST 98.882176731438 frm 34 to 61 wst 6.000000000000 nxthp 0 [of 3]
D 98.88218 _34_ (94,-1->2,-1->18,-1->0,110.882177)
(34),Route table updated..
VWST 98.882176731438 frm 34 to 94 wst 6.000000000000 nxthp 0 [of 2]
ed..
VWST 96.170782958934 frm 46 to 6 wst 6.000000000000 nxthp 78 [of 7]
D 96.64780 _46_ (79,1->2,18->20,79->77,101.360155)
(46),Route table updated..
VWST 96.647804112083 frm 46 to 79 wst 2.356175422668 nxthp 77 [of 2]
202 frm 54 to 81 wst 4.593750000000 nxthp 61 [of 3]
U 97.60769 _54_ (94,2->250,12->13,61->61,97.607685)
(54),Route table updated..
VWST 97.607685278202 frm 54 to 94 wst 3.077453613281 nxthp 61 [of 250]
D 99.33157 _54_ (15,1->1,16->20,15->15,106.365753)
(54),Route table updated..
VWST 99.331573639412 frm 54 to 15 wst 3.517089843750 nxthp 15 [of 1]
D 99.33157 _54_ (81,3->2,18->18,61->15,108.519074)
(54),Route table updated..
VWST 99.331573639412 frm 54 to 81 wst 4.593750000000 nxthp 15 [of 2]
 [of 6]
U 96.32497 _99_ (47,250->250,9->13,97->64,96.324967)
(99),Route table updated..
VWST 96.324967023802 frm 99 to 47 wst 4.593750000000 nxthp 64 [of 250]
U 96.32497 _99_ (91,250->4,7->18,97->64,96.324967)
(99),Route table updated..
VWST 96.324967023802 frm 99 to 91 wst 5.250000000000 nxthp 64 [of 4]
thp 94 [of 250]
D 99.5>94,109.078581)
(0),Route table updated..
VWST 98.578581411815 frm 0 to 45 wst 5.250000000000 nxthp 94 [of 2]
U 99.58363 _0_ (24,250->10,5->6,94->94,99.583627)
(0),Route table updated..
VWST 99.583626546164 frm 0 to 24 wst 5.250000000000 nxthp 94 [of 10]
U 99.58363 _0_ (28,250->250,9->13,94->94,99.583627)
(0),Route table updated..
VWST 99.583626546164 frm 0 to 28 wst 5.250000000000 nxthp 94 [of 250]
U 99.58363 _0_ (40,250->5,7->16,94->94,99.583627)
(0),Route table updated..
VWST 99.583626546164 frm 0 to 40 wst 5.250000000000 nxthp 94 [of 5]
8->20,57->17,106.647631)
(8),Route table updated..
VWST 99.613451626986 frm 8 to 17 wst 3.517089843750 nxthp 17 [of 1]
 wst 2.692771911621 nxthp 54 [of 1]
,8->20,57->57,104.072674)
(17),Route table updated..
VWST 96.033611348001 frm 17 to 8 wst 4.019531250000 nxthp 57 [of 2]
D 96.03361 _17_ (20,-1->4,-1->12,-1->57,108.033611)
(17),Route table updated..
VWST 96.033611348001 frm 17 to 20 wst 6.000000000000 nxthp 57 [of 4]
D 96.03361 _17_ (81,-1->4,-1->8,-1->57,108.033611)
(17),Route table updated..
VWST 96.033611348001 frm 17 to 81 wst 6.000000000000 nxthp 57 [of 4]
U 96.15017 _17_ (94,250->5,11->12,28->8,96.150170)
(17),Route table updated..
VWST 96.150170445789 frm 17 to 94 wst 3.949997722088 nxthp 8 [of 5]
D 97.15238 _17_ (15,3->3,10->16,57->8,106.339876)
(17),Route table updated..
VWST 97.152376385919 frm 17 to 15 wst 4.593750000000 nxthp 8 [of 3]
D 97.15238 _17_ (81,4->3,8->20,57->8,107.652376)
(17),Route table updated..
VWST 97.152376385919 frm 17 to 81 wst 5.250000000000 nxthp 8 [of 3]
D 99.06432 _17_ (71,1->1,18->20,71->71,103.187625)
(17),Route table updated..
VWST 99.064318029347 frm 17 to 71 wst 2.061653494835 nxthp 71 [of 1]
of 250]
U 98.04165 _24_ (15,250->4,11->16,57->57,98.041649)
(24),Route table updated..
VWST 98.041649041524 frm 24 to 15 wst 4.019531250000 nxthp 57 [of 4]
U 98.04165 _24_ (81,250->4,9->20,57->57,98.041649)
(24),Route table updated..
VWST 98.041649041524 frm 24 to 81 wst 4.593750000000 nxthp 57 [of 4]
D 99.61345 _24_ (17,2->1,18->20,57->17,104.325802)
(24),Route table updated..
VWST 99.613451129319 frm 24 to 17 wst 2.356175422668 nxthp 17 [of 1]
xthp 92 [of 3]
U 97.86506 _27_ (97,-1->250,-1->11,-1->92,97.865060)
(27),Route table updated..
VWST 97.865060455156 frm 27 to 97 wst 6.000000000000 nxthp 92 [of 250]
D 97.86506 _27_ (99,-1->3,-1->12,-1->92,109.865060)
(27),Route table updated..
VWST 97.865060455156 frm 27 to 99 wst 6.000000000000 nxthp 92 [of 3]
D 98.28143 _27_ (29,-1->4,-1->16,-1->55,110.281428)
(27),Route table updated..
VWST 98.281427856729 frm 27 to 29 wst 6.000000000000 nxthp 55 [of 4]
D 98.28143 _27_ (72,-1->4,-1->16,-1->55,110.281428)
(27),Route table updated..
VWST 98.281427856729 frm 27 to 72 wst 6.000000000000 nxthp 55 [of 4]
D 98.28143 _27_ (55,-1->1,-1->0,-1->55,604898.281428)
(27),Route table updated..
VWST 98.281427856729 frm 27 to 55 wst 6.000000000000 nxthp 55 [of 1]
U 98.85910 _27_ (6,250->2,9->20,37->92,98.859102)
(27),Route table updated..
VWST 98.859101829545 frm 27 to 6 wst 5.250000000000 nxthp 92 [of 2]
U 98.85910 _27_ (10,250->3,9->18,37->92,98.859102)
(27),Route table updated..
VWST 98.859101829545 frm 27 to 10 wst 4.019531250000 nxthp 92 [of 3]
U 98.85910 _27_ (43,250->3,9->18,37->92,98.859102)
(27),Route table updated..
VWST 98.859101829545 frm 27 to 43 wst 4.019531250000 nxthp 92 [of 3]
250->5,9->18,75->55,99.278985)
(86),Route table updated..
VWST 99.278985048538 frm 86 to 43 wst 5.250000000000 nxthp 55 [of 5]
U 99.27899 _86_ (95,250->5,13->20,75->55,99.278985)
(86),Route table updated..
VWST 99.278985048538 frm 86 to 95 wst 5.250000000000 nxthp 55 [of 5]
000000000 nxthp 73 [of 4]
D 94.44678 _18_ (56,1->1,16->18,56->56,101.480959)
(18),Route table updated..
VWST 94.446779583328 frm 18 to 56 wst 3.517089843750 nxthp 56 [of 1]
U 95.45003 _18_ (9,2->250,12->13,56->56,95.450032)
(18),Route table updated..
VWST 95.450032133236 frm 18 to 9 wst 5.250000000000 nxthp 56 [of 250]
D 95.53355 _18_ (4,2->1,16->18,74->4,100.245901)
(18),Route table updated..
VWST 95.533550367360 frm 18 to 4 wst 2.356175422668 nxthp 4 [of 1]
D 99.845->2,18->20,32->37,94.776241)
(10),Route table updated..
VWST 90.652934255835 frm 10 to 95 wst 2.061653494835 nxthp 37 [of 2]
U 90.65293 _10_ (97,2->250,10->11,84->37,90.652934)
(10),Route table updated..
VWST 90.652934255835 frm 10 to 97 wst 4.593750000000 nxthp 37 [of 250]
D 93.16411 _10_ (32,1->1,18->20,32->32,100.198289)
(10),Route table updated..
VWST 93.164108974669 frm 10 to 32 wst 3.517089843750 nxthp 32 [of 1]
U 93.16411 _10_ (80,2->250,12->13,32->32,93.164109)
(10),Route table updated..
VWST 93.164108974669 frm 10 to 80 wst 6.132042614704 nxthp 32 [of 250]
U 95.19307 _10_ (21,4->250,8->9,32->37,95.193072)
(10),Route table updated..
VWST 95.193072128728 frm 10 to 21 wst 5.250000000000 nxthp 37 [of 250]
U 95.19307 _10_ (27,2->250,10->11,37->37,95.193072)
(10),Route table updated..
VWST 95.193072128728 frm 10 to 27 wst 8.593832049645 nxthp 37 [of 250]
U 95.19307 _10_ (77,3->250,12->13,32->37,95.193072)
(10),Route table updated..
VWST 95.193072128728 frm 10 to 77 wst 4.593750000000 nxthp 37 [of 250]
U 95.53090 _10_ (0,-1->250,-1->9,-1->43,95.530904)
(10),Route table updated..
VWST 95.530904489243 frm 10 to 0 wst 6.000000000000 nxthp 43 [of 250]
U 95.53090 _10_ (12,-1->250,-1->11,-1->43,95.530904)
(10),Route table updated..
VWST 95.530904489243 frm 10 to 12 wst 6.000000000000 nxthp 43 [of 250]
U 95.53090 _10_ (30,-1->250,-1->7,-1->43,95.530904)
(10),Route table updated..
VWST 95.530904489243 frm 10 to 30 wst 6.000000000000 nxthp 43 [of 250]
U 95.53090 _10_ (34,-1->250,-1->9,-1->43,95.530904)
(10),Route table updated..
VWST 95.530904489243 frm 10 to 34 wst 6.000000000000 nxthp 43 [of 250]
U 95.53090 _10_ (35,-1->250,-1->7,-1->43,95.530904)
(10),Route table updated..
VWST 95.530904489243 frm 10 to 35 wst 6.000000000000 nxthp 43 [of 250]
D 95.53090 _10_ (43,1->1,18->20,43->43,99.654211)
(10),Route table updated..
VWST 95.530904489243 frm 10 to 43 wst 2.061653494835 nxthp 43 [of 1]
U 95.53090 _10_ (91,-1->250,-1->13,-1->43,95.530904)
(10),Route table updated..
VWST 95.530904489243 frm 10 to 91 wst 6.000000000000 nxthp 43 [of 250]
D 97.74092 _10_ (6,2->1,18->20,37->6,101.864228)
(10),Route table updated..
VWST 97.740921057390 frm 10 to 6 wst 2.061653494835 nxthp 6 [of 1]
D 97.74092 _10_ (84,1->2,18->20,84->6,103.895828)
(10),Route table updated..
VWST 97.740921057390 frm 10 to 84 wst 3.077453613281 nxthp 6 [of 2]
D 98.71106 _10_ (47,-1->2,-1->18,-1->43,110.711065)
(10),Route table updated..
VWST 98.711064897470 frm 10 to 47 wst 6.000000000000 nxthp 43 [of 2]
U 99.70961 _10_ (21,250->5,9->14,37->6,99.709610)
(10),Route table updated..
VWST 99.709609500678 frm 10 to 21 wst 4.593750000000 nxthp 6 [of 5]
U 99.70961 _10_ (25,250->4,11->16,32->6,99.709610)
(10),Route table updated..
VWST 99.709609500678 frm 10 to 25 wst 3.517089843750 nxthp 6 [of 4]
U 99.70961 _10_ (27,250->3,11->22,37->6,99.709610)
(10),Route table updated..
VWST 99.709609500678 frm 10 to 27 wst 7.519603043440 nxthp 6 [of 3]
U 99.70961 _10_ (77,250->5,13->14,37->6,99.709610)
(10),Route table updated..
VWST 99.709609500678 frm 10 to 77 wst 4.019531250000 nxthp 6 [of 5]
U 99.70961 _10_ (78,250->5,11->14,43->6,99.709610)
(10),Route table updated..
VWST 99.709609500678 frm 10 to 78 wst 4.627484621217 nxthp 6 [of 5]
U 99.70961 _10_ (80,250->5,13->14,32->6,99.709610)
(10),Route table updated..
VWST 99.709609500678 frm 10 to 80 wst 5.365537287866 nxthp 6 [of 5]
9 [of 3]
D 99.84508 _38_ (69,2->1,20->22,60->69,110.345076)
(38),Route table updated..
VWST 99.845075677073 frm 38 to 69 wst 5.250000000000 nxthp 69 [of 1]
D 99.84508 _38_ (88,5->4,12->16,56->69,109.032576)
(38),Route table updated..
VWST 99.845075677073 frm 38 to 88 wst 4.593750000000 nxthp 69 [of 4]
D 99.84508 _38_ (89,2->2,18->20,41->69,109.032576)
(38),Route table updated..
VWST 99.845075677073 frm 38 to 89 wst 4.593750000000 nxthp 69 [of 2]
U 99.84508 _38_ (95,-1->250,-1->13,-1->69,99.845076)
(38),Route table updated..
VWST 99.845075677073 frm 38 to 95 wst 6.000000000000 nxthp 69 [of 250]
0,-1->13,-1->69,99.845075)
(56),Route table updated..
VWST 99.845075217946 frm 56 to 50 wst 6.000000000000 nxthp 69 [o4,19->21,109.473070)
(3),Route table updated..
VWST 97.473070051482 frm 3 to 84 wst 6.000000000000 nxthp 21 [of 7]
D 97.47307 _3_ (92,6->5,10->10,19->21,109.473070)
(3),Route table updated..
VWST 97.473070051482 frm 3 to 92 wst 6.000000000000 nxthp 21 [of 5]
D 97.80039 _3_ (19,2->1,18->20,21->19,105.839457)
(3),Route table updated..
VWST 97.800394894795 frm 3 to 19 wst 4.019531250000 nxthp 19 [of 1]
D 97.80039 _3_ (22,6->5,8->8,21->19,109.800395)
(3),Route table updated..
VWST 97.800394894795 frm 3 to 22 wst 6.000000000000 nxthp 19 [of 5]
D 97.80039 _3_ (39,6->5,6->6,21->19,109.800395)
(3),Route table updated..
VWST 97.800394894795 frm 3 to 39 wst 6.000000000000 nxthp 19 [of 5]
D 97.80039 _3_ (41,6->5,8->8,7->19,109.800395)
(3),Route table updated..
VWST 97.800394894795 frm 3 to 41 wst 6.000000000000 nxthp 19 [of 5]
D 97.80039 _3_ (42,6->5,8->8,21->19,109.800395)
(3),Route table updated..
VWST 97.800394894795 frm 3 to 42 wst 6.000000000000 nxthp 19 [of 5]
D 97.80039 _3_ (49,6->5,10->10,21->19,109.800395)
(3),Route table updated..
VWST 97.800394894795 frm 3 to 49 wst 6.000000000000 nxthp 19 [of 5]
D 97.80039 _3_ (62,5->4,10->10,21->19,109.800395)
(3),Route table updated..
VWST 97.800394894795 frm 3 to 62 wst 6.000000000000 nxthp 19 [of 4]
D 97.80039 _3_ (69,5->4,10->10,7->19,109.800395)
(3),Route table updated..
VWST 97.800394894795 frm 3 to 69 wst 6.000000000000 nxthp 19 [of 4]
D 97.80039 _3_ (73,5->4,10->10,21->19,109.800395)
(3),Route table updated..
VWST 97.800394894795 frm 3 to 73 wst 6.000000000000 nxthp 19 [of 4]
ST 97.800394910117 frm 7 to 42 wst 6.000000000000 nxthp 19 [of 5]
D 97.80039 _7_ (49,6->5,10->10,88->19,109.800395)
(7),Route table updated..
VWST 97.800394910117 frm 7 to 49 wst 6.000000000000 nxthp 19 [of 5]
D 97.80039 _7_ (62,5->4,10->10,88->19,109.800395)
(7),Route table updated..
VWST 97.800394910117 frm 7 to 62 wst 6.000000000000 nxthp 19 [of 4]
D 97.80039 _7_ (73,5->4,10->10,88->19,109.800395)
(7),Route table updated..
VWST 97.800394910117 frm 7 to 73 wst 6.000000000000 nxthp 19 [of 4]
D 98.47407 _7_ (25,2->2,16->18,21->70,108.974073)
(7),Route table updated..
VWST 98.474072604730 frm 7 to 25 wst 5.250000000000 nxthp 70 [of 2]
D 98.95354 _7_ (55,1->2,16->18,55->70,103.076844)
(7),Route table updated..
VWST 98.953536978358 frm 7 to 55 wst 2.061653494835 nxthp 70 [of 2]
D 98.95354 _7_ (70,1->1,18->20,70->70,104.339081)
(7),Route table updated..
VWST 98.953536978358 frm 7 to 70 wst 2.692771911621 nxthp 70 [of 1]
5_ (43,250->6,9->18,80->75,99.478868)
(25),Route table updated..
VWST 99.478868084903 frm 25 to 43 wst 3.517089843750 nxthp 75 [of 6]
U 99.47887 _25_ (95,250->6,13->20,80->75,99.478868)
(25),Route table updated..
VWST 99.478868084903 frm 25 to 95 wst 3.517089843750 nxthp 75 [of 6]
4 to 3 wst 4.593750000000 nxthp 2 [of 7]
D 98.82546 _4_ (19,3->4,14->16,41->2,108.012963)
(4),Route table updated..
VWST 98.825463280903 frm 4 to 19 wst 4.593750000000 nxthp 2 [of 4]
D 98.82546 _4_ (85,3->3,16->18,41->2,106.864526)
(4),Route table updated..
VWST 98.825463280903 frm 4 to 85 wst 4.019531250000 nxthp 2 [of 3]
D 99.84508 _4_ (3,7->5,16->16,2->69,109.032576)
(4),Route table updated..
VWST 99.845075595424 frm 4 to 3 wst 4.593750000000 nxthp 69 [of 5]
U 99.84508 _4_ (10,-1->250,-1->9,-1->69,99.845076)
(4),Route table updated..
VWST 99.845075595424 frm 4 to 10 wst 6.000000000000 nxthp 69 [of 250]
D 99.84508 _4_ (33,3->3,16->18,60->69,109.032576)
(4),Route table updated..
VWST 99.845075595424 frm 4 to 33 wst 4.593750000000 nxthp 69 [of 3]
U 99.84508 _4_ (43,-1->250,-1->9,-1->69,99.845076)
(4),Route table updated..
VWST 99.845075595424 frm 4 to 43 wst 6.000000000000 nxthp 69 [of 250]
U 99.84508 _4_ (50,-1->250,-1->13,-1->69,99.845076)
(4),Route table updated..
VWST 99.845075595424 frm 4 to 50 wst 6.000000000000 nxthp 69 [of 250]
D 99.84508 _4_ (69,1->1,20->22,69->69,106.879255)
(4),Route table updated..
VWST 99.845075595424 frm 4 to 69 wst 3.517089843750 nxthp 69 [of 1]
D 99.84508 _4_ (88,4->4,12->16,73->69,109.032576)
(4),Route table updated..
VWST 99.845075595424 frm 4 to 88 wst 4.593750000000 nxthp 69 [of 4]
D 99.84508 _4_ (89,2->2,18->20,60->69,109.032576)
(4),Route table updated..
VWST 99.845075595424 frm 4 to 89 wst 4.593750000000 nxthp 69 [of 2]
U 99.84508 _4_ (95,-1->250,-1->13,-1->69,99.845076)
(4),Route table updated..
VWST 99.845075595424 frm 4 to 95 wst 6.000000000000 nxthp 69 [of 250]
->18,7->7,103.102212)
(21),Route table updated..
VWST 95.063149666019 frm 21 to 29 wst 4.019531250000 nxthp 7 [of 2]
D 95.06315 _21_ (70,3->2,16->18,77->7,102.097329)
(21),Route table updated..
VWST 95.063149666019 frm 21 to 70 wst 3.517089843750 nxthp 7 [of 2]
D 96.04660 _21_ (16,-1->6,-1->10,-1->33,108.046600)
(21),Route table updated..
VWST 96.046600315956 frm 21 to 16 wst 6.000000000000 nxthp 33 [of 6]
D 96.06308 _21_ (7,1->1,20->22,7->7,104.102142)
(21),Route table updated..
VWST 96.063079917237 frm 21 to 7 wst 4.019531250000 nxthp 7 [of 1]
D 96.49487 _21_ (88,1->1,18->20,88->88,104.533935)
(21),Route table updated..
VWST 96.494872710345 frm 21 to 88 wst 4.019531250000 nxthp 88 [of 1]
D 97.07086 _21_ (72,2->2,16->20,7->7,104.105037)
(21),Route table updated..
VWST 97.070857793836 frm 21 to 72 wst 3.517089843750 nxthp 7 [of 2]
D 97.80039 _21_ (19,1->1,18->20,19->19,106.987894)
(21),Route table updated..
VWST 97.800394324028 frm 21 to 19 wst 4.593750000000 nxthp 19 [of 1]
16->58,104.959257)
(74),Route table updated..
VWST 98.804350030761 frm 74 to 98 wst 3.077453613281 nxthp 58 [of 2]
D 98.81065 _74_ (89,2->2,18->20,60->87,106.849708)
(74),Route table updated..
VWST 98.810645498680 frm 74 to 89 wst 4.019531250000 nxthp 87 [of 2]
D 98.82546 _74_ (19,3->4,14->16,2->2,108.012963)
(74),Route table updated..
VWST 98.825463018536 frm 74 to 19 wst 4.593750000000 nxthp 2 [of 4]
D 99.41094 _74_ (88,4->4,12->16,73->68,108.598444)
(74),Route table updated..
VWST 99.410943591713 frm 74 to 88 wst 4.593750000000 nxthp 68 [of 4]
D 99.42551 _74_ (18,2->2,16->18,4->56,104.811055)
(74),Route table updated..
VWST 99.425511210831 frm 74 to 18 wst 2.692771911621 nxthp 56 [of 2]
D 99.84508 _74_ (3,7->5,16->16,58->69,109.032576)
(74),Route table updated..
VWST 99.845075677440 frm 74 to 3 wst 4.593750000000 nxthp 69 [of 5]
U 99.84508 _74_ (10,-1->250,-1->9,-1->69,99.845076)
(74),Route table updated..
VWST 99.845075677440 frm 74 to 10 wst 6.000000000000 nxthp 69 [of 250]
U 99.84508 _74_ (43,-1->250,-1->9,-1->69,99.845076)
(74),Route table updated..
VWST 99.845075677440 frm 74 to 43 wst 6.000000000000 nxthp 69 [of 250]
U 99.84508 _74_ (50,-1->250,-1->13,-1->69,99.845076)
(74),Route table updated..
VWST 99.845075677440 frm 74 to 50 wst 6.000000000000 nxthp 69 [of 250]
D 99.84508 _74_ (69,1->1,20->22,69->69,106.879255)
(74),Route table updated..
VWST 99.845075677440 frm 74 to 69 wst 3.517089843750 nxthp 69 [of 1]
U 99.84508 _74_ (95,-1->250,-1->13,-1->69,99.845076)
(74),Route table updated..
VWST 99.845075677440 frm 74 to 95 wst 6.000000000000 nxthp 69 [of 250]
0,78->77,104.686866)
(88),Route table updated..
VWST 96.647803669268 frm 88 to 79 wst 4.019531250000 nxthp 77 [of 2]
D 97.07086 _88_ (72,3->2,16->20,21->7,105.109920)
(88),Route table updated..
VWST 97.070857845897 frm 88 to 72 wst 4.019531250000 nxthp 7 [of 2]
D 97.47307 _88_ (21,1->1,18->20,21->21,105.512132)
(88),Route table updated..
VWST 97.473069851378 frm 88 to 21 wst 4.019531250000 nxthp 21 [of 1]
D 97.80039 _88_ (19,1->1,18->20,19->19,102.512746)
(88),Route table updated..
VWST 97.800394812663 frm 88 to 19 wst 2.356175422668 nxthp 19 [of 1]
81 nxthp 22 [of 3]
D 98.42334 _33_ (62,3->3,10->18,89->22,107.610841)
(33),Route table updated..
VWST 98.423340621798 frm 33 to 62 wst 4.593750000000 nxthp 22 [of 3]
D 98.42334 _33_ (87,3->3,18->20,89->22,106.462403)
(33),Route table updated..
VWST 98.423340621798 frm 33 to 87 wst 4.019531250000 nxthp 22 [of 3]
D 99.84508 _33_ (1,5->3,8->18,89->69,109.032576)
(33),Route table updated..
VWST 99.845075687748 frm 33 to 1 wst 4.593750000000 nxthp 69 [of 3]
D 99.84508 _33_ (2,2->2,16->20,89->69,107.884138)
(33),Route table updated..
VWST 99.845075687748 frm 33 to 2 wst 4.019531250000 nxthp 69 [of 2]
U 99.84508 _33_ (9,-1->250,-1->13,-1->69,99.845076)
(33),Route)
(1),Route table updated..
VWST 91.832916439774 frm 1 to 56 wst 5.250000000000 nxthp 4 [of 2]
D 92.80567 _1_ (69,2->2,18->20,2->60,100.844730)
(1),Route table updated..
VWST 92.805667467621 frm 1 to 69 wst 4.019531250000 nxthp 60 [of 2]
D 93.77363 _1_ (63,1->1,18->20,63->63,98.485981)
(1),Route table updated..
VWST 93.773630184643 frm 1 to 63 wst 2.356175422668 nxthp 63 [of 1]
U 94.72974 _1_ (83,-1->250,-1->9,-1->87,94.729740)
(1),Route table updated..
VWST 94.729739914761 frm 1 to 83 wst 6.000000000000 nxthp 87 [of 250]
D 94.72974 _1_ (87,1->1,20->22,87->87,102.768802)
(1),Route table updated..
VWST 94.729739914761 frm 1 to 87 wst 4.019531250000 nxthp 87 [of 1]
D 95.22622 _1_ (58,2->1,18->20,41->58,99.349531)
(1),Route table updated..
VWST 95.226224392148 frm 1 to 58 wst 2.061653494835 nxthp 58 [of 1]
U 95.45003 _1_ (9,3->250,12->13,74->56,95.450032)
(1),Route table updated..
VWST 95.450032468345 frm 1 to 9 wst 5.625180975158 nxthp 56 [of 250]
D 95.51989 _1_ (16,1->1,18->20,16->16,101.674798)
(1),Route table updated..
VWST 95.519890649565 frm 1 to 16 wst 3.077453613281 nxthp 16 [of 1]
D 95.53355 _1_ (4,2->1,16->18,74->4,106.033551)
(1),Route table updated..
VWST 95.533550507728 frm 1 to 4 wst 5.250000000000 nxthp 4 [of 1]
D 95.84340 _1_ (14,2->2,18->20,60->36,102.877583)
(1),Route table updated..
VWST 95.843403048345 frm 1 to 14 wst 3.517089843750 nxthp 36 [of 2]
D 97.41603 _1_ (48,2->2,16->18,74->38,107.916028)
(1),Route table updated..
VWST 97.416027841082 frm 1 to 48 wst 5.250000000000 nxthp 38 [of 2]
D 97.41603 _1_ (38,-1->1,-1->0,-1->38,604897.416028)
(1),Route table updated..
VWST 97.416027841082 frm 1 to 38 wst 6.000000000000 nxthp 38 [of 1]
D 97.41845 _1_ (38,1->2,0->18,38->56,107.918453)
(1),Route table updated..
VWST 97.418452818264 frm 1 to 38 wst 5.250000000000 nxthp 56 [of 2]
D 98.41943 _1_ (33,3->3,16->18,68->68,106.809569)
(1),Route table updated..
VWST 98.419426709894 frm 1 to 33 wst 4.195071372276 nxthp 68 [of 3]
D 98.41943 _1_ (68,1->1,20->22,68->68,105.623403)
(1),Route table updated..
VWST 98.419426709894 frm 1 to 68 wst 3.601988170217 nxthp 68 [of 1]
D 98.41943 _1_ (73,2->2,18->20,60->68,104.574334)
(1),Route table updated..
VWST 98.419426709894 frm 1 to 73 wst 3.077453613281 nxthp 68 [of 2]
D 98.80152 _1_ (62,1->1,18->20,62->62,102.924831)
(1),Route table updated..
VWST 98.801523955693 frm 1 to 62 wst 2.061653494835 nxthp 62 [of 1]
U 98.80435 _1_ (3,250->7,9->16,2->58,98.804350)
(1),Route table updated..
VWST 98.804349871482 frm 1 to 3 wst 5.250000000000 nxthp 58 [of 7]
D 98.80435 _1_ (98,2->2,18->20,49->58,102.927657)
(1),Route table updated..
VWST 98.804349871482 frm 1 to 98 wst 2.061653494835 nxthp 58 [of 2]
D 98.81065 _1_ (89,2->2,18->20,68->87,104.196189)
(1),Route table updated..
VWST 98.810645330673 frm 1 to 89 wst 2.692771911621 nxthp 87 [of 2]
D 98.82741 _1_ (18,-1->3,-1->16,-1->41,110.827405)
(1),Route table updated..
VWST 98.827405240103 frm 1 to 18 wst 6.000000000000 nxthp 41 [of 3]
D 98.82741 _1_ (19,3->4,14->16,68->41,105.861585)
(1),Route table updated..
VWST 98.827405240103 frm 1 to 19 wst 3.517089843750 nxthp 41 [of 4]
D 99.41094 _1_ (88,4->4,12->16,2->68,107.644059)
(1),Route table updated..
VWST 99.410943470539 frm 1 to 88 wst 4.116557908820 nxthp 68 [of 4]
..
VWST 98.658304681379 frm 68 to 3 wst 4.019531250000 nxthp 49 [of 6]
D 98.66181 _68_ (22,1->2,18->20,22->82,105.146457)
(68),Route table updated..
VWST 98.661806784070 frm 68 to 22 wst 3.242325316075 nxthp 82 [of 2]
D 98.66181 _68_ (82,1->1,20->22,82->82,107.605954)
(68),Route table updated..
VWST 98.661806784070 frm 68 to 82 wst 4.472073642240 nxthp 82 [of 1]
D 98.80152 _68_ (62,1->1,18->20,62->62,104.956432)
(68),Route table updated..
VWST 98.801524274708 frm 68 to 62 wst 3.077453613281 nxthp 62 [of 1]
D 98.80152 _68_ (74,2->2,16->18,42->62,109.301524)
(68),Route table updated..
VWST 98.801524274708 frm 68 to 74 wst 5.250000000000 nxthp 62 [of 2]
D 98.80435 _68_ (98,2->2,18->20,49->58,104.496281)
(68),Route table updated..
VWST 98.804349329267 frm 68 to 98 wst 2.845965891273 nxthp 58 [of 2]
D 98.82546 _68_ (18,-1->3,-1->1,-1->89,105.606187)
(14),Route table updated..
VWST 93.606187061353 frm 14 to 37 wst 6.000000000000 nxthp 89 [of 7]
U 94.59262 _14_ (83,-1->250,-1->9,-1->89,94.592621)
(14),Route table updated..
VWST 94.592620591163 frm 14 to 83 wst 6.000000000000 nxthp 89 [of 250]
D 94.59262 _14_ (89,1->1,18->20,89->89,99.304971)
(14),Route table updated..
VWST 94.592620591163 frm 14 to 89 wst 2.356175422668 nxthp 89 [of 1]
U 95.45003 _14_ (9,3->250,12->13,74->56,95.450032)
(14),Route table updated..
VWST 95.450032065537 frm 14 to 9 wst 5.250000000000 nxthp 56 [of 250]
D 95.53355 _14_ (4,1->1,16->18,4->4,104.721051)
(14),Route table updated..
VWST 95.533550508436 frm 14 to 4 wst 4.593750000000 nxthp 4 [of 1]
U 97.05092 _14_ (3,250->4,9->16,68->33,97.050921)
(14),Route table updated..
VWST 97.050921085955 frm 14 to 3 wst 4.728142073147 nxthp 33 [of 4]
U 97.05092 _14_ (10,-1->250,-1->9,-1->33,97.050921)
(14),Route table updated..
VWST 97.050921085955 frm 14 to 10 wst 6.000000000000 nxthp 33 [of 250]
U 97.05092 _14_ (43,-1->250,-1->9,-1->33,97.050921)
(14),Route table updated..
VWST 97.050921085955 frm 14 to 43 wst 6.000000000000 nxthp 33 [of 250]
U 97.05092 _14_ (50,-1->250,-1->13,-1->33,97.050921)
(14),Route table updated..
VWST 97.050921085955 frm 14 to 50 wst 6.000000000000 nxthp 33 [of 250]