D 1.12039 _13_ (54,-1->1,-1->4,-1->54,13.120390)
(13),Route table updated..
VWST 1.120390056978 frm 13 to 54 wst 6.000000000000 nxthp 54 [of 1]
D 1.39428 _13_ (26,-1->1,-1->4,-1->26,13.394277)
(13),Route table updated..
VWST 1.394276938414 frm 13 to 26 wst 6.000000000000 nxthp 26 [of 1]
D 25.48260 _13_ (54,1->1,4->8,54->54,35.982599)
(13),Route table updated..
VWST 25.482598751149 frm 13 to 54 wst 5.250000000000 nxthp 54 [of 1]
D 28.15707 _13_ (26,1->1,4->8,26->26,38.657070)
(13),Route table updated..
VWST 28.157069949720 frm 13 to 26 wst 5.250000000000 nxthp 26 [of 1]
D 38.16748 _13_ (54,1->1,8->10,54->54,47.354978)
(13),Route table updated..
VWST 38.167478467664 frm 13 to 54 wst 4.593750000000 nxthp 54 [of 1]
D 41.91769 _13_ (26,1->1,8->10,26->26,51.105188)
(13),Route table updated..
VWST 41.917687794479 frm 13 to 26 wst 4.593750000000 nxthp 26 [of 1]
D 51.25410 _13_ (54,1->1,10->12,54->54,59.293162)
(13),Route table updated..
VWST 51.254099230955 frm 13 to 54 wst 4.019531250000 nxthp 54 [of 1]
D 54.95430 _13_ (26,1->1,10->12,26->26,62.993366)
(13),Route table updated..
VWST 54.954303228161 frm 13 to 26 wst 4.019531250000 nxthp 26 [of 1]
D 78.18859 _13_ (54,1->1,12->16,54->54,85.222769)
(13),Route table updated..
VWST 78.188588965656 frm 13 to 54 wst 3.517089843750 nxthp 54 [of 1]
D 82.04724 _13_ (26,1->1,12->16,26->26,89.081418)
(13),Route table updated..
VWST 82.047238748169 frm 13 to 26 wst 3.517089843750 nxthp 26 [of 1]
D 90.12236 _13_ (54,1->1,16->18,54->54,96.277270)
(13),Route table updated..
VWST 90.122362650808 frm 13 to 54 wst 3.077453613281 nxthp 54 [of 1]
D 95.87683 _13_ (26,1->1,16->18,26->26,102.031741)
(13),Route table updated..
VWST 95.876833304796 frm 13 to 26 wst 3.077453613281 nxthp 26 [of 1]
0.36853 _38_ (16,2->2,4->10,83->83,60.868529)
(38),Route table updated..
VWST 50.368529271652 frm 38 to 16 wst 5.250000000000 nxthp 83 [of 2]
D 50.36853 _38_ (53,4->4,4->6,83->83,60.868529)
(38),Route table updated..
VWST 50.368529271652 frm 38 to 53 wst 5.250000000000 nxthp 83 [of 4]
D 50.36853 _38_ (57,3->3,4->8,83->83,60.868529)
(38),Route table updated..
VWST 50.368529271652 frm 38 to 57 wst 5.250000000000 nxthp 83 [of 3]
D 50.36853 _38_ (83,1->1,10->12,83->83,58.407592)
(38),Route table updated..
VWST 50.368529271652 frm 38 to 83 wst 4.019531250000 nxthp 83 [of 1]
D 50.36853 _38_ (90,-1->5,-1->4,-1->83,62.368529)
(38),Route table updated..
VWST 50.368529271652 frm 38 to 90 wst 6.000000000000 nxthp 83 [of 5]
D 53.97937 _38_ (20,1->1,10->12,20->20,61.013552)
(38),Route table updated..
VWST 53.979372188579 frm 38 to 20 wst 3.517089843750 nxthp 20 [of 1]
D 63.17924 _38_ (83,1->1,12->14,83->83,70.213423)
(38),Route table updated..
VWST 63.179242929909 frm 38 to 83 wst 3.517089843750 nxthp 83 [of 1]
D 73.68666 _38_ (20,1->1,12->16,20->20,79.841566)
(38),Route table updated..
VWST 73.686658846683 frm 38 to 20 wst 3.077453613281 nxthp 20 [of 1]
D 75.55514 _38_ (83,1->1,14->16,83->83,81.710051)
(38),Route table updated..
VWST 75.555143541961 frm 38 to 83 wst 3.077453613281 nxthp 83 [of 1]
U 87.58273 _38_ (12,3->250,8->9,83->20,87.582734)
(38),Route table updated..
VWST 87.582733994834 frm 38 to 12 wst 4.593750000000 nxthp 20 [of 250]
U 87.58273 _38_ (16,2->250,10->11,83->20,87.582734)
(38),Route table updated..
VWST 87.582733994834 frm 38 to 16 wst 4.593750000000 nxthp 20 [of 250]
D 87.58273 _38_ (20,1->1,16->18,20->20,92.968278)
(38),Route table updated..
VWST 87.582733994834 frm 38 to 20 wst 2.692771911621 nxthp 20 [of 1]
U 87.58273 _38_ (53,4->250,6->7,83->20,87.582734)
(38),Route table updated..
VWST 87.582733994834 frm 38 to 53 wst 4.593750000000 nxthp 20 [of 250]
U 87.58273 _38_ (57,3->250,8->9,83->20,87.582734)
(38),Route table updated..
VWST 87.582733994834 frm 38 to 57 wst 4.593750000000 nxthp 20 [of 250]
U 87.58273 _38_ (90,5->250,4->5,83->20,87.582734)
(38),Route table updated..
VWST 87.582733994834 frm 38 to 90 wst 5.250000000000 nxthp 20 [of 250]
D 95.24074 _38_ (83,1->1,16->20,83->83,100.626282)
(38),Route table updated..
VWST 95.240737678563 frm 38 to 83 wst 2.692771911621 nxthp 83 [of 1]
 97 to 78 ws0 nxthp 81 [of 4]
D 48.49373 _5_ (80,1->1,10->12,80->80,56.532793)
(5),Route table updated..
VWST 48.493730770226 frm 5 to 80 wst 4.019531250000 nxthp 80 [of 1]
D 49.13154 _5_ (24,1->2,8->10,24->81,56.165719)
(5),Route table updated..
VWST 49.131538882126 frm 5 to 24 wst 3.517089843750 nxthp 81 [of 2]
D 49.13154 _5_ (44,2->2,8->12,81->81,57.170601)
(5),Route table updated..
VWST 49.131538882126 frm 5 to 44 wst 4.019531250000 nxthp 81 [of 2]
D 49.13154 _5_ (50,2->3,6->8,81->81,59.631539)
(5),Route table updated..
VWST 49.131538882126 frm 5 to 50 wst 5.250000000000 nxthp 81 [of 3]
D 49.13154 _5_ (65,2->2,8->10,81->81,58.319039)
(5),Route table updated..
VWST 49.131538882126 frm 5 to 65 wst 4.593750000000 nxthp 81 [of 2]
D 49.13154 _5_ (81,1->1,10->12,81->81,56.165719)
(5),Route table updated..
VWST 49.131538882126 frm 5 to 81 wst 3.517089843750 nxthp 81 [of 1]
D 50.12911 _5_ (36,-1->5,-1->4,-1->81,62.129113)
(5),Route table updated..
VWST 50.129112795282 frm 5 to 36 wst 6.000000000000 nxthp 81 [of 5]
D 50.12911 _5_ (55,-1->5,-1->4,-1->81,62.129113)
(5),Route table updated..
VWST 50.129112795282 frm 5 to 55 wst 6.000000000000 nxthp 81 [of 5]
D 60.45020 _5_ (68,2->2,8->12,80->80,68.489259)
(5),Route table updated..
VWST 60.450196244046 frm 5 to 68 wst 4.019531250000 nxthp 80 [of 2]
D 60.45020 _5_ (80,1->1,12->14,80->80,67.484376)
(5),Route table updated..
VWST 60.450196244046 frm 5 to 80 wst 3.517089843750 nxthp 80 [of 1]
D 62.39096 _5_ (68,2->1,12->14,80->68,69.425138)
(5),Route table updated..
VWST 62.390958009992 frm 5 to 68 wst 3.517089843750 nxthp 68 [of 1]
D 67.61321 _5_ (68,1->1,14->16,68->68,73.768115)
(5),Route table updated..
VWST 67.613208030205 frm 5 to 68 wst 3.077453613281 nxthp 68 [of 1]
D 74.14249 _5_ (80,1->1,14->16,80->80,80.297401)
(5),Route table updated..
VWST 74.142493367418 frm 5 to 80 wst 3.077453613281 nxthp 80 [of 1]
D 98.41567 _5_ (68,1->2,16->20,68->80,103.801211)
(5),Route table updated..
VWST 98.415667271579 frm 5 to 68 wst 2.692771911621 nxthp 80 [of 2]
D 98.41567 _5_ (80,1->1,16->20,80->80,103.801211)
(5),Route table updated..
VWST 98.415667271579 frm 5 to 80 wst 2.692771911621 nxthp 80 [of 1]
hp 16 [of 4]
D 94.07703 _57_ (90,3->3,10->16,12->16,103.264526)
(57),Route table updated..
VWST 94.077026265494 frm 57 to 90 wst 4.593750000000 nxthp 16 [of 3]
D 95.16134 _57_ (7,5->5,4->10,12->16,105.661345)
(57),Route table updated..
VWST 95.161344628426 frm 57 to 7 wst 5.250000000000 nxthp 16 [of 5]
D 95.16134 _57_ (10,6->7,4->6,12->16,105.661345)
(57),Route table updated..
VWST 95.161344628426 frm 57 to 10 wst 5.250000000000 nxthp 16 [of 7]
D 95.16134 _57_ (63,5->5,4->12,12->16,105.661345)
(57),Route table updated..
VWST 95.161344628426 frm 57 to 63 wst 5.250000000000 nxthp 16 [of 5]
D 95.87683 _57_ (26,-1->1,-1->18,-1->26,107.876833)
(57),Route table updated..
VWST 95.876833420380 frm 57 to 26 wst 6.000000000000 nxthp 26 [of 1]
D 95.87683 _57_ (54,-1->3,-1->12,-1->26,107.876833)
(57),Route table updated..
VWST 95.876833420380 frm 57 to 54 wst 6.000000000000 nxthp 26 [of 3]
D 96.66053 _57_ (39,-1->7,-1->6,-1->16,108.660531)
(57),Route table updated..
VWST 96.660531460433 frm 57 to 39 wst 6.000000000000 nxthp 16 [of 7]
25,97.971293)
(70),Route table updated..
VWST 87.471292611954 frm 70 to 3 wst 5.250000000000 nxthp 25 [of 4]
D 87.47129 _70_ (25,1->1,18->20,25->25,91.594600)
(70),Route table updated..
VWST 87.471292611954 frm 70 to 25 wst 2.061653494835 nxthp 25 [of 1]
D 87.47129 _70_ (71,3->3,10->14,25->25,95.510355)
(70),Route table updated..
VWST 87.471292611954 frm 70 to 71 wst 4.019531250000 nxthp 25 [of 3]
D 90.63821 _70_ (78,1->1,16->18,78->78,95.350557)
(70),Route table updated..
VWST 90.638205710281 frm 70 to 78 wst 2.356175422668 nxthp 78 [of 1]
96692 frm 93 to 1 wst 3.077453613281 nxthp 18 [of 2]
D 98.62519 _93_ (6,3->4,10->16,92->18,109.125187)
(93),Route table updated..
VWST 98.625186796692 frm 93 to 6 wst 5.250000000000 nxthp 18 [of 4]
D 98.62519 _93_ (7,-1->4,-1->10,-1->18,110.625187)
(93),Route table updated..
VWST 98.625186796692 frm 93 to 7 wst 6.000000000000 nxthp 18 [of 4]
D 98.6251),Route table updated..
VWST 85.117451161702 frm 1 to 83 wst 4.593750000000 nxthp 16 [of 250]
D 85.54219 _1_ (16,3->1,8->18,53->16,96.042189)
(1),Route table updated..
VWST 85.542188749018 frm 1 to 16 wst 5.250000000000 nxthp 16 [of 1]
U 86.06776 _1_ (48,250->9,7->12,53->90,86.067759)
(1),Route table updated..
VWST 86.067759495236 frm 1 to 48 wst 4.593750000000 nxthp 90 [of 9]
D 87.06544 _1_ (48,9->8,12->12,90->53,96.252940)
(1),Route table updated..
VWST 87.065439701521 frm 1 to 48 wst 4.593750000000 nxthp 53 [of 8]
D 94.07703 _1_ (12,1->2,14->16,12->16,103.264526)
(1),Route table updated..
VWST 94.077026139173 frm 1 to 12 wst 4.593750000000 nxthp 16 [of 2]
D 94.07703 _1_ (16,1->1,18->20,16->16,103.264526)
(1),Route table updated..
VWST 94.077026139173 frm 1 to 16 wst 4.593750000000 nxthp 16 [of 1]
D 94.86310 _1_ (15,2->2,16->18,53->53,102.902160)
(1),Route table updated..
VWST 94.863097683504 frm 1 to 15 wst 4.019531250000 nxthp 53 [of 2]
D 94.86310 _1_ (17,2->2,16->18,53->53,104.050598)
(1),Route table updated..
VWST 94.863097683504 frm 1 to 17 wst 4.593750000000 nxthp 53 [of 2]
D 94.86310 _1_ (53,1->1,18->20,53->53,102.902160)
(1),Route table updated..
VWST 94.863097683504 frm 1 to 53 wst 4.019531250000 nxthp 53 [of 1]
U 94.86310 _1_ (60,-1->250,-1->7,-1->53,94.863098)
(1),Route table updated..
VWST 94.863097683504 frm 1 to 60 wst 6.000000000000 nxthp 53 [of 250]
U 94.86310 _1_ (62,-1->250,-1->5,-1->53,94.863098)
(1),Route table updated..
VWST 94.863097683504 frm 1 to 62 wst 6.000000000000 nxthp 53 [of 250]
D 94.86310 _1_ (74,3->3,12->16,90->53,104.050598)
(1),Route table updated..
VWST 94.863097683504 frm 1 to 74 wst 4.593750000000 nxthp 53 [of 3]
U 94.86310 _1_ (82,-1->250,-1->5,-1->53,94.863098)
(1),Route table updated..
VWST 94.863097683504 frm 1 to 82 wst 6.000000000000 nxthp 53 [of 250]
D 95.30528 _1_ (12,2->1,16->18,16->12,103.344341)
(1),Route table updated..
VWST 95.305278424303 frm 1 to 12 wst 4.019531250000 nxthp 12 [of 1]
D 95.86742 _1_ (10,5->4,6->14,90->90,106.367422)
(1),Route table updated..
VWST 95.867422301593 frm 1 to 10 wst 5.250000000000 nxthp 90 [of 4]
D 95.86742 _1_ (63,3->3,12->16,53->90,105.054922)
(1),Route table updated..
VWST 95.867422301593 frm 1 to 63 wst 4.593750000000 nxthp 90 [of 3]
D 96.66053 _1_ (57,2->2,16->18,16->16,105.848031)
(1),Route table updated..
VWST 96.660531263489 frm 1 to 57 wst 4.593750000000 nxthp 16 [of 2]
D 97.59469 _1_ (7,2->2,16->20,53->90,106.782194)
(1),Route table updated..
VWST 97.594694281037 frm 1 to 7 wst 4.593750000000 nxthp 90 [of 2]
D 98.59702 _1_ (28,-1->6,-1->10,-1->90,110.597019)
(1),Route table updated..
VWST 98.597019291440 frm 1 to 28 wst 6.000000000000 nxthp 90 [of 6]
D 99.11623 _1_ (90,1->1,18->20,90->90,107.155292)
(1),Route table updated..
VWST 99.116229269421 frm 1 to 90 wst 4.019531250000 nxthp 90 [of 1]
D 99.67295 _1_ (3,-1->8,-1->14,-1->53,111.672952)
(1),Route table updated..
VWST 99.672952102219 frm 1 to 3 wst 6.000000000000 nxthp 53 [of 8]
D 99.67295 _1_ (9,-1->7,-1->14,-1->53,111.672952)
(1),Route table updated..
VWST 99.672952102219 frm 1 to 9 wst 6.000000000000 nxthp 53 [of 7]
D 99.67295 _1_ (71,-1->8,-1->10,-1->53,111.672952)
(1),Route table updated..
VWST 99.672952102219 frm 1 to 71 wst 6.000000000000 nxthp 53 [of 8]
D 99.67295 _1_ (84,-1->9,-1->8,-1->53,111.672952)
(1),Route table updated..
VWST 99.672952102219 frm 1 to 84 wst 6.000000000000 nxthp 53 [of 9]
dated..
VWST 98.452285498496 frm 10 to 17 wst 4.593750000000 nxthp 63 [of 3]
D 98.45229 _10_ (25,-1->7,-1->8,-1->63,110.452285)
(10),Route table updated..
VWST 98.452285498496 frm 10 to 25 wst 6.000000000000 nxthp 63 [of 7]
D 98.45229 _10_ (63,1->1,16->20,63->63,103.837829)
(10),Route table updated..
VWST 98.452285498496 frm 10 to 63 wst 2.692771911621 nxthp 63 [of 1]
U 98.45229 _10_ (70,6->250,6->11,28->63,98.452285)
(10),Route table updated..
VWST 98.452285498496 frm 10 to 70 wst 5.250000000000 nxthp 63 [of 250]
U 98.45229 _10_ (84,7->250,8->9,28->63,98.452285)
(10),Route table updated..
VWST 98.452285498496 frm 10 to 84 wst 5.250000000000 nxthp 63 [of 250]
3]
le updated..
VWte table updated..
VWST 90.563424268524 frm 6 to 8 wst 4.593750000000 nxthp 8 [of 1]
D 90.56594 _6_ (14,1->1,16->18,14->14,99.753444)
(6),Route table updated..
VWST 90.565944069936 frm 6 to 14 wst 4.593750000000 nxthp 14 [of 1]
D 90.64969 _6_ (11,2->1,16->18,49->11,96.035237)
(6),Route table updated..
VWST 90.649693669127 frm 6 to 11 wst 2.692771911621 nxthp 11 [of 1]
D 91.02923 _6_ (40,2->3,14->16,87->49,97.184137)
(6),Route table updated..
VWST 91.029229580652 frm 6 to 40 wst 3.077453613281 nxthp 49 [of 3]
D 91.02923 _6_ (49,1->1,16->18,49->49,97.184137)
(6),Route table updated..
VWST 91.029229580652 frm 6 to 49 wst 3.077453613281 nxthp 49 [of 1]
D 91.59497 _6_ (67,2->2,16->18,14->14,100.782471)
(6),Route table updated..
VWST 91.594970714022 frm 6 to 67 wst 4.593750000000 nxthp 14 [of 2]
D 92.38821 _6_ (2,1->1,16->18,2->2,101.575710)
(6),Route table updated..
VWST 92.388209649039 frm 6 to 2 wst 4.593750000000 nxthp 2 [of 1]
D 93.97346 _6_ (0,2->2,16->18,8->14,101.007636)
(6),Route table updated..
VWST 93.973456402515 frm 6 to 0 wst 3.517089843750 nxthp 14 [of 2]
U 94.50823 _6_ (19,2->250,12->13,2->2,94.508230)
(6),Route table updated..
VWST 94.508229518956 frm 6 to 19 wst 5.250000000000 nxthp 2 [of 250]
D 94.96970 _6_ (51,1->2,16->18,51->14,103.008763)
(6),Route table updated..
VWST 94.969700989182 frm 6 to 51 wst 4.019531250000 nxthp 14 [of 2]
U 96.50328 _6_ (35,2->250,12->13,2->2,96.503284)
(6),Route table updated..
VWST 96.503283559412 frm 6 to 35 wst 5.250000000000 nxthp 2 [of 250]
D 97.20929 _6_ (46,2->2,16->18,49->49,106.396785)
(6),Route table updated..
VWST 97.209285334900 frm 6 to 46 wst 4.593750000000 nxthp 49 [of 2]
U 99.69711 _6_ (19,250->5,13->18,2->56,99.697111)
(6),Route table updated..
VWST 99.697111147120 frm 6 to 19 wst 4.593750000000 nxthp 56 [of 5]
U 99.69711 _6_ (35,250->4,13->18,2->56,99.697111)
(6),Route table updated..
VWST 99.697111147120 frm 6 to 35 wst 4.593750000000 nxthp 56 [of 4]
D 99.69711 _6_ (56,1->1,18->20,56->56,106.731291)
(6),Route table updated..
VWST 99.697111147120 frm 6 to 56 wst 3.517089843750 nxthp 56 [of 1]
 97.076776026920 frm 7 to 28 wst 5.250000000000 nxthp 74 [of 2]
D 97.59469 _7_ (18,-1->3,-1->16,-1->90,109.594694)
(7),Route table updated..
VWST 97.594694313082 frm 7 to 18 wst 6.000000000000 nxthp 90 [of 3]
D 98.58259 _7_ (15,1->1,18->20,15->15,103.294941)
(7),Route table updated..
VWST 98.582589819661 frm 7 to 15 wst 2.356175422668 nxthp 15 [of 1]
D 99.07423 _7_ (70,-1->7,-1->6,-1->74,111.074231)
(7),Route table updated..
VWST 99.074231005999 frm 7 to 70 wst 6.000000000000 nxthp 74 [of 7]
D 99.11623 _7_ (90,1->1,18->20,90->90,103.239536)
(7),Route table updated..
VWST 99.116229294554 frm 7 to 90 wst 2.061653494835 nxthp 90 [of 1]
22 [of 250]
U 98.07714 _9_ (58,4->250,10->11,22->22,98.077138)
(9),Route table updated..
VWST 98.077138440667 frm 9 to 58 wst 4.019531250000 nxthp 22 [of 250]
U 98.07714 _9_ (64,-1->250,-1->9,-1->22,98.077138)
(9),Route table updated..
VWST 98.077138440667 frm 9 to 64 wst 6.000000000000 nxthp 22 [of 250]
U 98.07714 _9_ (65,-1->250,-1->7,-1->22,98.077138)
(9),Route table updated..
VWST 98.077138440667 frm 9 to 65 wst 6.000000000000 nxthp 22 [of 250]
U 98.07714 _9_ (73,-1->250,-1->9,-1->22,98.077138)
(9),Route table updated..
VWST 98.077138440667 frm 9 to 73 wst 6.000000000000 nxthp 22 [of 250]
U 98.07714 _9_ (81,-1->250,-1->9,-1->22,98.077138)
(9),Route table updated..
VWST 98.077138440667 frm 9 to 81 wst 6.000000000000 nxthp 22 [of 250]
254212)
(15),Route table updated..
VWST 99.254212386320 frm 15 to 88 wst 6.000000000000 nxthp 17 [of 7]
 frm 36 to 50 wst 2.692771911621 nxthp 32 [of 2]
D 98.48052 _36_ (96,-1->8,-1->6,-1->55,110.480524)
(36),Route table updated..
VWST 98.480523969397 frm 36 to 96 wst 6.000000000000 nxthp 55 [of 8]
.074230864162 frm 90 to 70 wst 6.000000000000 nxthp 74 [of 7]
D 99.25421 _90_ (88,-1->7,-1->6,-1->17,111.254212)
(90),Route table updated..
VWST 99.254212472496 frm 90 to 88 wst 6.000000000000 nxthp 17 [of 7]

VWST 99.344593137203 frm 86 to 40 wst 4.593750000000 nxthp 92 [of 2]
U 99.34459 _86_ (83,250->3,11->20,17->92table updated..
VWST 88.898832790352 frm 0 to 37 wst 2.356175422668 nxthp 37 [of 1]
D 88.89883 _0_ (40,2->4,10->14,11->37,99.602063)
(0),Route table updated..
VWST 88.898832790352 frm 0 to 40 wst 5.351614885719 nxthp 37 [of 4]
D 88.89883 _0_ (46,-1->3,-1->14,-1->37,100.898833)
(0),Route table updated..
VWST 88.898832790352 frm 0 to 46 wst 6.000000000000 nxthp 37 [of 3]
D 90.50353 _0_ (29,2->2,16->18,91->91,97.537708)
(0),Route table updated..
VWST 90.503528439188 frm 0 to 29 wst 3.517089843750 nxthp 91 [of 2]
D 90.56594 _0_ (14,1->1,16->18,14->14,97.600124)
(0),Route table updated..
VWST 90.565944517289 frm 0 to 14 wst 3.517089843750 nxthp 14 [of 1]
D 91.59497 _0_ (67,1->2,16->18,67->14,98.629151)
(0),Route table updated..
VWST 91.594971191061 frm 0 to 67 wst 3.517089843750 nxthp 14 [of 2]
D 92.07448 _0_ (19,2->2,12->18,2->35,100.932697)
(0),Route table updated..
VWST 92.074477864050 frm 0 to 19 wst 4.429109812915 nxthp 35 [of 2]
D 92.07448 _0_ (45,3->2,10->18,2->35,102.081135)
(0),Route table updated..
VWST 92.074477864050 frm 0 to 45 wst 5.003328562915 nxthp 35 [of 2]
D 92.07448 _0_ (95,3->3,12->16,2->35,100.113540)
(0),Route table updated..
VWST 92.074477864050 frm 0 to 95 wst 4.019531250000 nxthp 35 [of 3]
D 92.07658 _0_ (47,3->3,14->16,91->98,100.115639)
(0),Route table updated..
VWST 92.076576036051 frm 0 to 47 wst 4.019531250000 nxthp 98 [of 3]
D 92.08107 _0_ (77,2->1,18->20,91->77,101.174235)
(0),Route table updated..
VWST 92.081074224316 frm 0 to 77 wst 4.546580193757 nxthp 77 [of 1]
D 94.67779 _0_ (29,2->1,18->20,91->29,100.832702)
(0),Route table updated..
VWST 94.677794410691 frm 0 to 29 wst 3.077453613281 nxthp 29 [of 1]
D 94.67779 _0_ (47,3->2,16->18,98->29,101.711974)
(0),Route table updated..
VWST 94.677794410691 frm 0 to 47 wst 3.517089843750 nxthp 29 [of 2]
D 94.69025 _0_ (4,1->1,18->20,4->4,99.402601)
(0),Route table updated..
VWST 94.690250001123 frm 0 to 4 wst 2.356175422668 nxthp 4 [of 1]
D 94.86928 _0_ (8,1->2,16->20,8->85,102.908347)
(0),Route table updated..
VWST 94.869284400774 frm 0 to 8 wst 4.019531250000 nxthp 85 [of 2]
D 94.86928 _0_ (85,1->1,18->20,85->85,101.903464)
(0),Route table updated..
VWST 94.869284400774 frm 0 to 85 wst 3.517089843750 nxthp 85 [of 1]
D 95.40494 _0_ (77,1->1,20->22,77->77,103.361452)
(0),Route table updated..
VWST 95.404936569697 frm 0 to 77 wst 3.978257669538 nxthp 77 [of 1]
D 96.37390 _0_ (98,1->1,18->20,98->98,103.408083)
(0),Route table updated..
VWST 96.373903040400 frm 0 to 98 wst 3.517089843750 nxthp 98 [of 1]
D 97.20929 _0_ (11,1->2,16->18,11->49,105.248348)
(0),Route table updated..
VWST 97.209285851005 frm 0 to 11 wst 4.019531250000 nxthp 49 [of 2]
D 97.20929 _0_ (46,3->2,14->18,37->49,107.709286)
(0),Route table updated..
VWST 97.209285851005 frm 0 to 46 wst 5.250000000000 nxthp 49 [of 2]
D 97.20929 _0_ (88,3->3,12->16,11->49,106.574612)
(0),Route table updated..
VWST 97.209285851005 frm 0 to 88 wst 4.682663025004 nxthp 49 [of 3]
D 97.67727 _0_ (29,1->1,20->22,29->29,103.062817)
(0),Route table updated..
VWST 97.677272748077 frm 0 to 29 wst 2.692771911621 nxthp 29 [of 1]
D 97.86542 _0_ (91,1->1,18->20,91->91,105.904485)
(0),Route table updated..
VWST 97.865422424603 frm 0 to 91 wst 4.019531250000 nxthp 91 [of 1]

U 98.21111 _2_ (19,250->4,13->18,19->49,98.211113)
(2),Route table updated..
VWST 98.211112549337 frm 2 to 19 wst 3.077453613281 nxthp 49 [of 4]
U 98.21111 _2_ (35,250->3,13->18,35->49,98.211113)
(2),Route table updated..
VWST 98.211112549337 frm 2 to 35 wst 3.077453613281 nxthp 49 [of 3]
D 99.69711 _2_ (56,1->1,18->20,56->56,107.736173)
(2),Route table updated..
VWST 99.697110810407 frm 2 to 56 wst 4.019531250000 nxthp 56 [of 1]
T 99.860921478323 frm 67 to 95 wst 5.457948942929 nxthp 85 [of 4]
20,50->32,103.183864)
(60),Route table updated..
VWST 97.798319764354 frm 60 to 50 wst 2.692771911621 nxthp 32 [of 2]
D 98.48527 _60_ (5,3->2,12->12,64->81,110.492939)
(60),Route table updated..
VWST 98.485272396680 frm 60 to 5 wst 6.003833214684 nxthp 81 [of 2]
D 98.48527 _60_ (68,5->4,8->8,64->81,109.169204)
(60),Route table updated..
VWST 98.48527239668d..
VWST 98.211112477366 frm 14 to 35 wst 3.875471056259 nxthp 49 [of 3]
D 99.69711 _14_ (56,1->1,18->20,56->56,107.736173)
(14),Route table updated..
VWST 99.697110877093 frm 14 to 56 wst 4.019531250000 nxthp 56 [of 1]
.67727 _41_ (29,1->1,20->22,29->29,103.832180)
(41),Route table updated..
VWST 97.677273096916 frm 41 to 29 wst 3.077453613281 nxthp 29 [of 1]
D 98.54796 _41_ (2,1->2,16->18,2->67,104.702864)
(41),Route table updated..
VWST 98.547957050431 frm 41 to 2 wst 3.077453613281 nxthp 67 [of 2]
D 98.99468 _41_ (0,1->1,18->20,0->0,106.028859)
(41),Route table updated..
VWST 98.994679764083 frm 41 to 0 wst 3.517089843750 nxthp 0 [of 1]
D 99.67211 _41_ (77,2->2,18->22,59->29,105.827014)
(41),Route table updated..
VWST 99.672106680436 frm 41 to 77 wst 3.077453613281 nxthp 29 [of 2]
